
 Primary working directories    : /scratch/slurm-1837548/molpro.VksK4vSRLl
 Secondary working directories  : /scratch/slurm-1837548/molpro.VksK4vSRLl
 Wavefunction directory         : /ihome/dlambrecht/aed63/wfu/
 Main file repository           : /scratch/slurm-1837548/molpro.VksK4vSRLl/

 id        : cfopitt

 Nodes               nprocs
 smp-n24.crc.pitt.edu    1

 Using customized tuning parameters: mindgm=1; mindgv=20; mindgc=4; mindgr=1; noblas=0; minvec=7
 default implementation of scratch files=df  


 Variables initialized (930), CPU time= 0.01 sec
 geometry ={
 14
 XYZ file generated by Avogadro.
 C     -0.68030    0.40480    0.16010
 C      0.69180    1.09210    0.03470
 H      3.63950    1.10320    1.91070
 H      3.48890    1.10000    0.14620
 H      2.88490    2.47740    1.08720
 H     -1.17380    0.69540    1.09050
 H     -1.32440    0.69210   -0.67400
 H     -0.56980   -0.68210    0.14950
 C      1.62330    0.70320    1.20200
 H      1.15150    0.80670   -0.91480
 H      0.55110    2.17580    0.02050
 C      2.99540    1.39060    1.07660
 H      1.16360    0.98870    2.15150
 H      1.76400   -0.38050    1.21620
 }
 basis=6-31g*
 hf
 Commands  initialized (760), CPU time= 0.01 sec, 617 directives.
 Default parameters read. Elapsed time= 0.06 sec

 Checking input...
 Passed
1


                                         ***  PROGRAM SYSTEM MOLPRO  ***
                                       Copyright, TTI GmbH Stuttgart, 2015
                                    Version 2018.2 linked Nov 10 2018 21:55:55


 **********************************************************************************************************************************
 LABEL *                                                                                 
  (2 PROC) 64 bit serial version                                                         DATE: 21-Jan-19          TIME: 14:40:54  
 **********************************************************************************************************************************

 SHA1:             5ea806b172b3d20b18658228ad0b1c212d33fc17
 **********************************************************************************************************************************

Geometry recognized as XYZ


 Variable memory set to    8000000 words,  buffer space 

 SETTING BASIS          =    6-31G*


 Recomputing integrals since basis changed


 Using spherical harmonics

 Library entry C      S 6-31G                selected for orbital group  1
 Library entry C      P 6-31G                selected for orbital group  1
 Library entry C      D 6-31G*               selected for orbital group  1
 Library entry H      S 6-31G                selected for orbital group  2


 PROGRAM * SEWARD (Integral evaluation for generally contracted gaussian basis sets)     Author: Roland Lindh, 1990

 Geometry written to block  1 of record 700


 Point group  C1  



 ATOMIC COORDINATES

 NR  ATOM    CHARGE       X              Y              Z

   1  C       6.00   -1.285580683    0.764961135    0.302545153
   2  C       6.00    1.307312533    2.063769901    0.065573497
   3  H       1.00    6.877658230    2.084745861    3.610699706
   4  H       1.00    6.593065476    2.078698737    0.276277959
   5  H       1.00    5.451670897    4.681607501    2.054510243
   6  H       1.00   -2.218160525    1.314115547    2.060746339
   7  H       1.00   -2.502753279    1.307879451   -1.273675408
   8  H       1.00   -1.076765946   -1.288982190    0.282514056
   9  C       6.00    3.067592418    1.328855411    2.271450802
  10  H       1.00    2.176019632    1.524442065   -1.728721459
  11  H       1.00    1.041428067    4.111666102    0.038739386
  12  C       6.00    5.660485634    2.627853149    2.034479146
  13  H       1.00    2.198885319    1.868372219    4.065745757
  14  H       1.00    3.333476884   -0.719040790    2.298284913

 Bond lengths in Bohr (Angstrom)

 1-2  2.909665789  1-6  2.064593699  1-7  2.064156167  1-8  2.064627816  2-9  2.916261179
     ( 1.539728827)     ( 1.092535935)     ( 1.092304404)     ( 1.092553990)     ( 1.543218957)

  2-10  2.065192709   2-11  2.065258693   3-12  2.064205879   4-12  2.064593699   5-12  2.064439822
       ( 1.092852918)       ( 1.092887835)       ( 1.092330710)       ( 1.092535935)       ( 1.092454507)

  9-12  2.909750147   9-13  2.065242068   9-14  2.065258693
       ( 1.539773467)       ( 1.092879037)       ( 1.092887835)

 Bond angles

  1- 2- 9  111.33379002   1- 2-10  109.21021426   1- 2-11  109.20550101   2- 1- 6  110.68017733

  2- 1- 7  110.23526971   2- 1- 8  110.68003655   2- 9-12  111.33213456   2- 9-13  109.72097659

  2- 9-14  109.72004581   3-12- 4  108.29711460   3-12- 5  108.29918721   3-12- 9  110.23061007

  4-12- 5  108.57596938   4-12- 9  110.67849241   5-12- 9  110.68283344   6- 1- 7  108.29904039

  6- 1- 8  108.57568763   7- 1- 8  108.29387539   9- 2-10  109.72287100   9- 2-11  109.72004581

 10- 2-11  107.56702117  12- 9-13  109.20565091  12- 9-14  109.20882964  13- 9-14  107.57204060

 NUCLEAR CHARGE:                   34
 NUMBER OF PRIMITIVE AOS:         152
 NUMBER OF SYMMETRY AOS:          148
 NUMBER OF CONTRACTIONS:           76   (   76A   )
 NUMBER OF CORE ORBITALS:           4   (    4A   )
 NUMBER OF VALENCE ORBITALS:       26   (   26A   )


 NUCLEAR REPULSION ENERGY  130.31480660


 Eigenvalues of metric

         1 0.521E-02 0.954E-02 0.160E-01 0.251E-01 0.313E-01 0.386E-01 0.411E-01 0.456E-01


 Contracted 2-electron integrals neglected if value below      1.0D-11
 AO integral compression algorithm  1   Integral accuracy      1.0D-11

     19.661 MB (compressed) written to integral file ( 49.3%)


 NUMBER OF SORTED TWO-ELECTRON INTEGRALS:    4282201.     BUFFER LENGTH:  32768
 NUMBER OF SEGMENTS:   1  SEGMENT LENGTH:    4282201      RECORD LENGTH: 524288

 Memory used in sort:       4.84 MW

 SORT1 READ     4944675. AND WROTE     4013235. INTEGRALS IN     12 RECORDS. CPU TIME:     0.05 SEC, REAL TIME:     0.10 SEC
 SORT2 READ     4013235. AND WROTE     4282201. INTEGRALS IN     75 RECORDS. CPU TIME:     0.09 SEC, REAL TIME:     0.13 SEC

 FILE SIZES:   FILE 1:    50.1 MBYTE,  FILE 4:    50.4 MBYTE,   TOTAL:    100.4 MBYTE

 OPERATOR DM      FOR CENTER  0  COORDINATES:    0.000000    0.000000    0.000000


 **********************************************************************************************************************************
 DATASETS  * FILE   NREC   LENGTH (MB)   RECORD NAMES
              1      19       46.83       500      610      700      900      950      970     1000      129      960     1100   
                                          VAR    BASINP    GEOM    SYMINP    ZMAT    AOBASIS   BASIS     P2S    ABASIS      S 
                                         1400     1410     1200     1210     1080     1600     1650     1300     1700   
                                           T        V       H0       H01     AOSYM     SMH    MOLCAS    ERIS     OPER   

 PROGRAMS   *        TOTAL       INT
 CPU TIMES  *         1.00      0.93
 REAL TIME  *         1.24 SEC
 DISK USED  *       100.94 MB
 **********************************************************************************************************************************


 PROGRAM * RHF-SCF (CLOSED SHELL)       Authors: W. Meyer, H.-J. Werner


 NUMBER OF ELECTRONS:      17+   17-    SPACE SYMMETRY=1    SPIN SYMMETRY: Singlet 
 CONVERGENCE THRESHOLDS:    1.00E-05 (Density)    1.00E-07 (Energy)
 MAX. NUMBER OF ITERATIONS:       60
 INTERPOLATION TYPE:            DIIS
 INTERPOLATION STEPS:              2 (START)      1 (STEP)
 LEVEL SHIFTS:                  0.00 (CLOSED)  0.00 (OPEN) 



 Orbital guess generated from atomic densities. Full valence occupancy:   17

 Molecular orbital dump at record        2100.2

 Initial occupancy:  17

 ITERATION    DDIFF          GRAD             ENERGY        2-EL.EN.            DIPOLE MOMENTS         DIIS   ORB.
    1      0.000D+00      0.000D+00      -157.23411042    365.838057    0.00001   -0.00005    0.00001    0    start
    2      0.000D+00      0.633D-02      -157.28896643    360.592708   -0.00000    0.00004   -0.00002    1    diag
    3      0.721D-02      0.249D-02      -157.29578796    362.485968    0.00000    0.00003   -0.00002    2    diag
    4      0.238D-02      0.641D-03      -157.29659203    362.111975    0.00000    0.00004   -0.00002    3    diag
    5      0.113D-02      0.823D-04      -157.29660304    362.120444    0.00000    0.00004   -0.00002    4    diag
    6      0.151D-03      0.284D-04      -157.29660416    362.117900    0.00000    0.00004   -0.00002    5    diag
    7      0.476D-04      0.238D-05      -157.29660418    362.117997    0.00000    0.00004   -0.00002    6    diag
    8      0.590D-05      0.494D-06      -157.29660418    362.117976    0.00000    0.00004   -0.00002    0    orth

 Final occupancy:  17

 !RHF STATE  1.1 Energy              -157.296604178220
 Nuclear energy                       130.31480660
 One-electron energy                 -468.67039860
 Two-electron energy                  181.05898782
 Virial quotient                       -0.99973772
 !RHF STATE  1.1 Dipole moment          0.00000141     0.00003784    -0.00001787
 Dipole moment /Debye                   0.00000357     0.00009617    -0.00004542

 Orbital energies:

         1.1          2.1          3.1          4.1          5.1          6.1          7.1          8.1          9.1         10.1
    -11.213894   -11.213341   -11.206311   -11.206305    -1.065320    -0.976891    -0.857285    -0.787803    -0.637799    -0.582748

        11.1         12.1         13.1         14.1         15.1         16.1         17.1         18.1         19.1
     -0.568787    -0.568094    -0.512825    -0.496638    -0.467461    -0.466240    -0.448467     0.231492     0.260737


 HOMO     17.1    -0.448467 =     -12.2034eV
 LUMO     18.1     0.231492 =       6.2992eV
 LUMO-HOMO         0.679959 =      18.5026eV


 **********************************************************************************************************************************
 DATASETS  * FILE   NREC   LENGTH (MB)   RECORD NAMES
              1      19       46.83       500      610      700      900      950      970     1000      129      960     1100   
                                          VAR    BASINP    GEOM    SYMINP    ZMAT    AOBASIS   BASIS     P2S    ABASIS      S 
                                         1400     1410     1200     1210     1080     1600     1650     1300     1700   
                                           T        V       H0       H01     AOSYM     SMH    MOLCAS    ERIS     OPER   

              2       4        3.09       700     1000      520     2100   
                                         GEOM     BASIS   MCVARS     RHF  

 PROGRAMS   *        TOTAL    HF-SCF       INT
 CPU TIMES  *         1.87      0.87      0.93
 REAL TIME  *         1.79 SEC
 DISK USED  *       100.94 MB
 **********************************************************************************************************************************
 Molecular orbitals read from record     2100.2  Type=RHF/CANONICAL (state 1.1)
 Occupation numbers read from record     2100.2  Type=RHF/RHF (state 1.1)
 Orbital energies read from record       2100.2  Type=RHF/CANONICAL (state 1.1)
 Redundancy group numbers read from rec  2100.2  Type=RHF/RHF (state 1.1)

 HF/6-31G* energy=   -157.296604178220

          HF-SCF
   -157.29660418
 **********************************************************************************************************************************
 Molpro calculation terminated
